<?xml version="1.0" encoding="UTF-8"?>

<!-- generated on 2023-04-19 08:17:29 by Eclipse SUMO GUI Version 1.15.0
<configuration xmlns:xsi="http://www.w3.org/2001/XMLSchema-instance" xsi:noNamespaceSchemaLocation="http://sumo.dlr.de/xsd/sumoConfiguration.xsd">

    <input>
        <net-file value="ims.net.xml"/>
        <route-files value="ims.rou.xml"/>
        <additional-files value="ims.add.xml"/>
    </input>

    <output>
        <tripinfo-output value="tripinfo.xml"/>
    </output>

    <traci_server>
        <remote-port value="63779"/>
    </traci_server>

</configuration>
-->

<tripinfos xmlns:xsi="http://www.w3.org/2001/XMLSchema-instance" xsi:noNamespaceSchemaLocation="http://sumo.dlr.de/xsd/tripinfo_file.xsd">
    <tripinfo id="carflow2.0" depart="15.00" departLane="-E1_0" departPos="5.10" departSpeed="0.00" departDelay="0.00" arrival="86.00" arrivalLane="E2_0" arrivalPos="121.03" arrivalSpeed="7.00" duration="71.00" routeLength="415.93" waitingTime="0.00" waitingCount="0" stopTime="1.00" timeLoss="4.58" rerouteNo="0" devices="tripinfo_carflow2.0 routing_carflow2.0" vType="car" speedFactor="0.89" vaporized=""/>
    <tripinfo id="carflow4.0" depart="0.00" departLane="-E3_0" departPos="5.10" departSpeed="0.00" departDelay="0.00" arrival="87.00" arrivalLane="-E0_0" arrivalPos="300.00" arrivalSpeed="7.00" duration="87.00" routeLength="594.90" waitingTime="0.00" waitingCount="0" stopTime="1.00" timeLoss="0.89" rerouteNo="0" devices="tripinfo_carflow4.0 routing_carflow4.0" vType="car" speedFactor="1.06" vaporized=""/>
    <tripinfo id="carflow2.1" depart="19.00" departLane="-E1_0" departPos="5.10" departSpeed="0.00" departDelay="0.00" arrival="88.00" arrivalLane="E2_0" arrivalPos="121.03" arrivalSpeed="7.00" duration="69.00" routeLength="415.93" waitingTime="0.00" waitingCount="0" stopTime="0.00" timeLoss="6.48" rerouteNo="0" devices="tripinfo_carflow2.1 routing_carflow2.1" vType="car" speedFactor="0.94" vaporized=""/>
    <tripinfo id="carflow0.0" depart="2.00" departLane="E0_0" departPos="5.10" departSpeed="0.00" departDelay="0.00" arrival="89.00" arrivalLane="E3_0" arrivalPos="300.00" arrivalSpeed="7.00" duration="87.00" routeLength="594.90" waitingTime="0.00" waitingCount="0" stopTime="1.00" timeLoss="0.89" rerouteNo="0" devices="tripinfo_carflow0.0 routing_carflow0.0" vType="car" speedFactor="1.01" vaporized=""/>
    <tripinfo id="carflow2.2" depart="25.00" departLane="-E1_0" departPos="5.10" departSpeed="0.00" departDelay="0.00" arrival="92.00" arrivalLane="E2_0" arrivalPos="121.03" arrivalSpeed="7.00" duration="67.00" routeLength="415.93" waitingTime="1.00" waitingCount="1" stopTime="0.00" timeLoss="6.89" rerouteNo="0" devices="tripinfo_carflow2.2 routing_carflow2.2" vType="car" speedFactor="1.09" vaporized=""/>
    <tripinfo id="carflow2.3" depart="27.00" departLane="-E1_0" departPos="5.10" departSpeed="0.00" departDelay="1.00" arrival="94.00" arrivalLane="E2_0" arrivalPos="121.03" arrivalSpeed="7.00" duration="67.00" routeLength="415.93" waitingTime="0.00" waitingCount="0" stopTime="0.00" timeLoss="7.13" rerouteNo="0" devices="tripinfo_carflow2.3 routing_carflow2.3" vType="car" speedFactor="1.05" vaporized=""/>
    <tripinfo id="carflow6.0" depart="4.00" departLane="-E2_0" departPos="5.10" departSpeed="0.00" departDelay="0.00" arrival="95.00" arrivalLane="E1_0" arrivalPos="300.00" arrivalSpeed="7.00" duration="91.00" routeLength="594.90" waitingTime="0.00" waitingCount="0" stopTime="1.00" timeLoss="4.89" rerouteNo="0" devices="tripinfo_carflow6.0 routing_carflow6.0" vType="car" speedFactor="1.08" vaporized=""/>
    <tripinfo id="carflow2.4" depart="45.00" departLane="-E1_0" departPos="5.10" departSpeed="0.00" departDelay="0.00" arrival="109.00" arrivalLane="E2_0" arrivalPos="121.03" arrivalSpeed="7.00" duration="64.00" routeLength="415.93" waitingTime="0.00" waitingCount="0" stopTime="0.00" timeLoss="3.39" rerouteNo="0" devices="tripinfo_carflow2.4 routing_carflow2.4" vType="car" speedFactor="0.97" vaporized=""/>
    <tripinfo id="carflow6.1" depart="8.00" departLane="-E2_0" departPos="5.10" departSpeed="0.00" departDelay="0.00" arrival="115.00" arrivalLane="E1_0" arrivalPos="300.00" arrivalSpeed="5.82" duration="107.00" routeLength="594.90" waitingTime="0.00" waitingCount="0" stopTime="0.00" timeLoss="4.44" rerouteNo="0" devices="tripinfo_carflow6.1 routing_carflow6.1" vType="car" speedFactor="0.83" vaporized=""/>
    <tripinfo id="carflow6.2" depart="25.00" departLane="-E2_0" departPos="5.10" departSpeed="0.00" departDelay="0.00" arrival="117.00" arrivalLane="E1_0" arrivalPos="300.00" arrivalSpeed="7.00" duration="92.00" routeLength="594.90" waitingTime="0.00" waitingCount="0" stopTime="0.00" timeLoss="6.67" rerouteNo="0" devices="tripinfo_carflow6.2 routing_carflow6.2" vType="car" speedFactor="1.03" vaporized=""/>
    <tripinfo id="carflow2.5" depart="47.00" departLane="-E1_0" departPos="5.10" departSpeed="0.00" departDelay="1.00" arrival="117.00" arrivalLane="E2_0" arrivalPos="121.03" arrivalSpeed="7.00" duration="70.00" routeLength="415.93" waitingTime="0.00" waitingCount="0" stopTime="0.00" timeLoss="5.23" rerouteNo="0" devices="tripinfo_carflow2.5 routing_carflow2.5" vType="car" speedFactor="0.89" vaporized=""/>
    <tripinfo id="carflow6.3" depart="27.00" departLane="-E2_0" departPos="5.10" departSpeed="0.00" departDelay="1.00" arrival="119.00" arrivalLane="E1_0" arrivalPos="300.00" arrivalSpeed="7.00" duration="92.00" routeLength="594.90" waitingTime="0.00" waitingCount="0" stopTime="0.00" timeLoss="6.74" rerouteNo="0" devices="tripinfo_carflow6.3 routing_carflow6.3" vType="car" speedFactor="1.12" vaporized=""/>
    <tripinfo id="carflow6.4" depart="30.00" departLane="-E2_0" departPos="5.10" departSpeed="0.00" departDelay="0.00" arrival="130.00" arrivalLane="E1_0" arrivalPos="300.00" arrivalSpeed="6.49" duration="100.00" routeLength="594.90" waitingTime="3.00" waitingCount="1" stopTime="0.00" timeLoss="7.56" rerouteNo="0" devices="tripinfo_carflow6.4 routing_carflow6.4" vType="car" speedFactor="0.93" vaporized=""/>
    <tripinfo id="evflow6.0" depart="38.00" departLane="-E2_0" departPos="5.10" departSpeed="0.00" departDelay="0.00" arrival="132.00" arrivalLane="E1_0" arrivalPos="300.00" arrivalSpeed="7.00" duration="94.00" routeLength="594.90" waitingTime="0.00" waitingCount="0" stopTime="0.00" timeLoss="8.33" rerouteNo="0" devices="tripinfo_evflow6.0 routing_evflow6.0" vType="ev" speedFactor="1.16" vaporized=""/>
    <tripinfo id="carflow6.5" depart="40.00" departLane="-E2_0" departPos="5.10" departSpeed="0.00" departDelay="1.00" arrival="134.00" arrivalLane="E1_0" arrivalPos="300.00" arrivalSpeed="7.00" duration="94.00" routeLength="594.90" waitingTime="0.00" waitingCount="0" stopTime="0.00" timeLoss="8.40" rerouteNo="0" devices="tripinfo_carflow6.5 routing_carflow6.5" vType="car" speedFactor="1.02" vaporized=""/>
    <tripinfo id="carflow0.1" depart="6.00" departLane="E0_0" departPos="5.10" departSpeed="0.00" departDelay="0.00" arrival="146.00" arrivalLane="E3_0" arrivalPos="300.00" arrivalSpeed="7.00" duration="140.00" routeLength="594.90" waitingTime="0.00" waitingCount="0" stopTime="49.00" timeLoss="5.89" rerouteNo="0" devices="tripinfo_carflow0.1 routing_carflow0.1" vType="car" speedFactor="1.03" vaporized=""/>
    <tripinfo id="carflow4.1" depart="2.00" departLane="-E3_0" departPos="5.10" departSpeed="0.00" departDelay="1.00" arrival="149.00" arrivalLane="-E0_0" arrivalPos="300.00" arrivalSpeed="6.57" duration="147.00" routeLength="594.90" waitingTime="0.00" waitingCount="0" stopTime="50.00" timeLoss="6.12" rerouteNo="0" devices="tripinfo_carflow4.1 routing_carflow4.1" vType="car" speedFactor="0.94" vaporized=""/>
    <tripinfo id="carflow0.2" depart="9.00" departLane="E0_0" departPos="5.10" departSpeed="0.00" departDelay="0.00" arrival="149.00" arrivalLane="E3_0" arrivalPos="300.00" arrivalSpeed="7.00" duration="140.00" routeLength="594.90" waitingTime="48.00" waitingCount="1" stopTime="0.00" timeLoss="54.05" rerouteNo="0" devices="tripinfo_carflow0.2 routing_carflow0.2" vType="car" speedFactor="1.05" vaporized=""/>
    <tripinfo id="carflow4.2" depart="31.00" departLane="-E3_0" departPos="5.10" departSpeed="0.00" departDelay="0.00" arrival="155.00" arrivalLane="-E0_0" arrivalPos="300.00" arrivalSpeed="6.15" duration="124.00" routeLength="594.90" waitingTime="19.00" waitingCount="1" stopTime="0.00" timeLoss="26.44" rerouteNo="0" devices="tripinfo_carflow4.2 routing_carflow4.2" vType="car" speedFactor="0.88" vaporized=""/>
    <tripinfo id="carflow4.3" depart="34.00" departLane="-E3_0" departPos="5.10" departSpeed="0.00" departDelay="0.00" arrival="157.00" arrivalLane="-E0_0" arrivalPos="300.00" arrivalSpeed="6.59" duration="123.00" routeLength="594.90" waitingTime="22.00" waitingCount="2" stopTime="0.00" timeLoss="32.26" rerouteNo="0" devices="tripinfo_carflow4.3 routing_carflow4.3" vType="car" speedFactor="0.94" vaporized=""/>
    <tripinfo id="carflow0.3" depart="23.00" departLane="E0_0" departPos="5.10" departSpeed="0.00" departDelay="0.00" arrival="159.00" arrivalLane="E3_0" arrivalPos="300.00" arrivalSpeed="6.00" duration="136.00" routeLength="594.90" waitingTime="29.00" waitingCount="1" stopTime="0.00" timeLoss="35.85" rerouteNo="0" devices="tripinfo_carflow0.3 routing_carflow0.3" vType="car" speedFactor="0.86" vaporized=""/>
    <tripinfo id="carflow0.4" depart="30.00" departLane="E0_0" departPos="5.10" departSpeed="0.00" departDelay="0.00" arrival="161.00" arrivalLane="E3_0" arrivalPos="300.00" arrivalSpeed="6.94" duration="131.00" routeLength="594.90" waitingTime="28.00" waitingCount="1" stopTime="0.00" timeLoss="44.37" rerouteNo="0" devices="tripinfo_carflow0.4 routing_carflow0.4" vType="car" speedFactor="0.99" vaporized=""/>
    <tripinfo id="carflow0.5" depart="35.00" departLane="E0_0" departPos="5.10" departSpeed="0.00" departDelay="0.00" arrival="163.00" arrivalLane="E3_0" arrivalPos="300.00" arrivalSpeed="6.55" duration="128.00" routeLength="594.90" waitingTime="26.00" waitingCount="1" stopTime="0.00" timeLoss="36.54" rerouteNo="0" devices="tripinfo_carflow0.5 routing_carflow0.5" vType="car" speedFactor="0.94" vaporized=""/>
    <tripinfo id="carflow0.6" depart="42.00" departLane="E0_0" departPos="5.10" departSpeed="0.00" departDelay="0.00" arrival="165.00" arrivalLane="E3_0" arrivalPos="300.00" arrivalSpeed="7.00" duration="123.00" routeLength="594.90" waitingTime="26.00" waitingCount="2" stopTime="0.00" timeLoss="37.38" rerouteNo="0" devices="tripinfo_carflow0.6 routing_carflow0.6" vType="car" speedFactor="1.01" vaporized=""/>
    <tripinfo id="carflow4.4" depart="49.00" departLane="-E3_0" departPos="5.10" departSpeed="0.00" departDelay="0.00" arrival="166.00" arrivalLane="-E0_0" arrivalPos="300.00" arrivalSpeed="5.78" duration="117.00" routeLength="594.90" waitingTime="5.00" waitingCount="2" stopTime="0.00" timeLoss="13.34" rerouteNo="0" devices="tripinfo_carflow4.4 routing_carflow4.4" vType="car" speedFactor="0.83" vaporized=""/>
    <tripinfo id="carflow0.7" depart="71.00" departLane="E0_0" departPos="5.10" departSpeed="0.00" departDelay="0.00" arrival="167.00" arrivalLane="E3_0" arrivalPos="300.00" arrivalSpeed="7.00" duration="96.00" routeLength="594.90" waitingTime="2.00" waitingCount="1" stopTime="0.00" timeLoss="10.46" rerouteNo="0" devices="tripinfo_carflow0.7 routing_carflow0.7" vType="car" speedFactor="1.15" vaporized=""/>
    <tripinfo id="carflow4.5" depart="51.00" departLane="-E3_0" departPos="5.10" departSpeed="0.00" departDelay="1.00" arrival="168.00" arrivalLane="-E0_0" arrivalPos="300.00" arrivalSpeed="6.11" duration="117.00" routeLength="594.90" waitingTime="4.00" waitingCount="2" stopTime="0.00" timeLoss="19.08" rerouteNo="0" devices="tripinfo_carflow4.5 routing_carflow4.5" vType="car" speedFactor="0.87" vaporized=""/>
    <tripinfo id="carflow0.8" depart="75.00" departLane="E0_0" departPos="5.10" departSpeed="0.00" departDelay="0.00" arrival="169.00" arrivalLane="E3_0" arrivalPos="300.00" arrivalSpeed="6.96" duration="94.00" routeLength="594.90" waitingTime="1.00" waitingCount="1" stopTime="0.00" timeLoss="8.10" rerouteNo="0" devices="tripinfo_carflow0.8 routing_carflow0.8" vType="car" speedFactor="0.99" vaporized=""/>
    <tripinfo id="carflow2.6" depart="58.00" departLane="-E1_0" departPos="5.10" departSpeed="0.00" departDelay="0.00" arrival="170.00" arrivalLane="E2_0" arrivalPos="121.03" arrivalSpeed="7.00" duration="112.00" routeLength="415.93" waitingTime="0.00" waitingCount="0" stopTime="41.00" timeLoss="7.17" rerouteNo="0" devices="tripinfo_carflow2.6 routing_carflow2.6" vType="car" speedFactor="0.92" vaporized=""/>
    <tripinfo id="carflow2.7" depart="60.00" departLane="-E1_0" departPos="5.10" departSpeed="0.00" departDelay="1.00" arrival="172.00" arrivalLane="E2_0" arrivalPos="121.03" arrivalSpeed="7.00" duration="112.00" routeLength="415.93" waitingTime="40.00" waitingCount="1" stopTime="0.00" timeLoss="49.84" rerouteNo="0" devices="tripinfo_carflow2.7 routing_carflow2.7" vType="car" speedFactor="0.95" vaporized=""/>
    <tripinfo id="carflow2.8" depart="62.00" departLane="-E1_0" departPos="5.10" departSpeed="0.00" departDelay="2.00" arrival="174.00" arrivalLane="E2_0" arrivalPos="121.03" arrivalSpeed="7.00" duration="112.00" routeLength="415.93" waitingTime="40.00" waitingCount="1" stopTime="0.00" timeLoss="52.35" rerouteNo="0" devices="tripinfo_carflow2.8 routing_carflow2.8" vType="car" speedFactor="1.13" vaporized=""/>
    <tripinfo id="carflow2.9" depart="70.00" departLane="-E1_0" departPos="5.10" departSpeed="0.00" departDelay="0.00" arrival="177.00" arrivalLane="E2_0" arrivalPos="121.03" arrivalSpeed="7.00" duration="107.00" routeLength="415.93" waitingTime="40.00" waitingCount="1" stopTime="0.00" timeLoss="46.89" rerouteNo="0" devices="tripinfo_carflow2.9 routing_carflow2.9" vType="car" speedFactor="1.18" vaporized=""/>
    <tripinfo id="carflow0.9" depart="84.00" departLane="E0_0" departPos="5.10" departSpeed="0.00" departDelay="0.00" arrival="177.00" arrivalLane="E3_0" arrivalPos="300.00" arrivalSpeed="6.81" duration="93.00" routeLength="594.90" waitingTime="0.00" waitingCount="0" stopTime="0.00" timeLoss="4.73" rerouteNo="0" devices="tripinfo_carflow0.9 routing_carflow0.9" vType="car" speedFactor="0.97" vaporized=""/>
    <tripinfo id="carflow2.10" depart="74.00" departLane="-E1_0" departPos="5.10" departSpeed="0.00" departDelay="0.00" arrival="179.00" arrivalLane="E2_0" arrivalPos="121.03" arrivalSpeed="7.00" duration="105.00" routeLength="415.93" waitingTime="39.00" waitingCount="1" stopTime="0.00" timeLoss="45.23" rerouteNo="0" devices="tripinfo_carflow2.10 routing_carflow2.10" vType="car" speedFactor="1.01" vaporized=""/>
    <tripinfo id="carflow0.10" depart="89.00" departLane="E0_0" departPos="5.10" departSpeed="0.00" departDelay="0.00" arrival="179.00" arrivalLane="E3_0" arrivalPos="300.00" arrivalSpeed="7.00" duration="90.00" routeLength="594.90" waitingTime="0.00" waitingCount="0" stopTime="0.00" timeLoss="4.20" rerouteNo="0" devices="tripinfo_carflow0.10 routing_carflow0.10" vType="car" speedFactor="1.18" vaporized=""/>
    <tripinfo id="carflow2.11" depart="92.00" departLane="-E1_0" departPos="5.10" departSpeed="0.00" departDelay="0.00" arrival="183.00" arrivalLane="E2_0" arrivalPos="121.03" arrivalSpeed="7.00" duration="91.00" routeLength="415.93" waitingTime="20.00" waitingCount="2" stopTime="0.00" timeLoss="26.34" rerouteNo="0" devices="tripinfo_carflow2.11 routing_carflow2.11" vType="car" speedFactor="0.90" vaporized=""/>
    <tripinfo id="carflow2.12" depart="94.00" departLane="-E1_0" departPos="5.10" departSpeed="0.00" departDelay="1.00" arrival="185.00" arrivalLane="E2_0" arrivalPos="121.03" arrivalSpeed="7.00" duration="91.00" routeLength="415.93" waitingTime="19.00" waitingCount="1" stopTime="0.00" timeLoss="31.21" rerouteNo="0" devices="tripinfo_carflow2.12 routing_carflow2.12" vType="car" speedFactor="1.03" vaporized=""/>
    <tripinfo id="carflow4.6" depart="95.00" departLane="-E3_0" departPos="5.10" departSpeed="0.00" departDelay="0.00" arrival="187.00" arrivalLane="-E0_0" arrivalPos="300.00" arrivalSpeed="6.70" duration="92.00" routeLength="594.90" waitingTime="0.00" waitingCount="0" stopTime="0.00" timeLoss="2.55" rerouteNo="0" devices="tripinfo_carflow4.6 routing_carflow4.6" vType="car" speedFactor="0.96" vaporized=""/>
    <tripinfo id="carflow2.13" depart="96.00" departLane="-E1_0" departPos="5.10" departSpeed="0.00" departDelay="0.00" arrival="187.00" arrivalLane="E2_0" arrivalPos="121.03" arrivalSpeed="7.00" duration="91.00" routeLength="415.93" waitingTime="18.00" waitingCount="1" stopTime="0.00" timeLoss="31.42" rerouteNo="0" devices="tripinfo_carflow2.13 routing_carflow2.13" vType="car" speedFactor="1.09" vaporized=""/>
    <tripinfo id="evflow4.0" depart="99.00" departLane="-E3_0" departPos="5.10" departSpeed="0.00" departDelay="0.00" arrival="189.00" arrivalLane="-E0_0" arrivalPos="300.00" arrivalSpeed="7.00" duration="90.00" routeLength="594.90" waitingTime="0.00" waitingCount="0" stopTime="0.00" timeLoss="4.42" rerouteNo="0" devices="tripinfo_evflow4.0 routing_evflow4.0" vType="ev" speedFactor="1.04" vaporized=""/>
    <tripinfo id="evflow2.0" depart="103.00" departLane="-E1_0" departPos="5.10" departSpeed="0.00" departDelay="0.00" arrival="190.00" arrivalLane="E2_0" arrivalPos="121.03" arrivalSpeed="7.00" duration="87.00" routeLength="415.93" waitingTime="17.00" waitingCount="1" stopTime="0.00" timeLoss="26.78" rerouteNo="0" devices="tripinfo_evflow2.0 routing_evflow2.0" vType="ev" speedFactor="1.00" vaporized=""/>
    <tripinfo id="evflow0.0" depart="102.00" departLane="E0_0" departPos="5.10" departSpeed="0.00" departDelay="0.00" arrival="191.00" arrivalLane="E3_0" arrivalPos="300.00" arrivalSpeed="7.00" duration="89.00" routeLength="594.90" waitingTime="0.00" waitingCount="0" stopTime="0.00" timeLoss="3.89" rerouteNo="0" devices="tripinfo_evflow0.0 routing_evflow0.0" vType="ev" speedFactor="1.09" vaporized=""/>
    <tripinfo id="carflow4.7" depart="101.00" departLane="-E3_0" departPos="5.10" departSpeed="0.00" departDelay="1.00" arrival="192.00" arrivalLane="-E0_0" arrivalPos="300.00" arrivalSpeed="7.00" duration="91.00" routeLength="594.90" waitingTime="0.00" waitingCount="0" stopTime="0.00" timeLoss="5.10" rerouteNo="0" devices="tripinfo_carflow4.7 routing_carflow4.7" vType="car" speedFactor="1.04" vaporized=""/>
    <tripinfo id="carflow2.14" depart="109.00" departLane="-E1_0" departPos="5.10" departSpeed="0.00" departDelay="0.00" arrival="193.00" arrivalLane="E2_0" arrivalPos="121.03" arrivalSpeed="7.00" duration="84.00" routeLength="415.93" waitingTime="10.00" waitingCount="1" stopTime="0.00" timeLoss="17.78" rerouteNo="0" devices="tripinfo_carflow2.14 routing_carflow2.14" vType="car" speedFactor="0.88" vaporized=""/>
    <tripinfo id="carflow2.15" depart="115.00" departLane="-E1_0" departPos="5.10" departSpeed="0.00" departDelay="0.00" arrival="195.00" arrivalLane="E2_0" arrivalPos="121.03" arrivalSpeed="7.00" duration="80.00" routeLength="415.93" waitingTime="5.00" waitingCount="1" stopTime="0.00" timeLoss="13.05" rerouteNo="0" devices="tripinfo_carflow2.15 routing_carflow2.15" vType="car" speedFactor="0.85" vaporized=""/>
    <tripinfo id="carflow2.16" depart="121.00" departLane="-E1_0" departPos="5.10" departSpeed="0.00" departDelay="0.00" arrival="197.00" arrivalLane="E2_0" arrivalPos="121.03" arrivalSpeed="7.00" duration="76.00" routeLength="415.93" waitingTime="4.00" waitingCount="1" stopTime="0.00" timeLoss="16.41" rerouteNo="0" devices="tripinfo_carflow2.16 routing_carflow2.16" vType="car" speedFactor="1.00" vaporized=""/>
    <tripinfo id="carflow6.6" depart="67.00" departLane="-E2_0" departPos="5.10" departSpeed="0.00" departDelay="0.00" arrival="199.00" arrivalLane="E1_0" arrivalPos="300.00" arrivalSpeed="6.52" duration="132.00" routeLength="594.90" waitingTime="0.00" waitingCount="0" stopTime="34.00" timeLoss="5.79" rerouteNo="0" devices="tripinfo_carflow6.6 routing_carflow6.6" vType="car" speedFactor="0.93" vaporized=""/>
    <tripinfo id="carflow2.17" depart="123.00" departLane="-E1_0" departPos="5.10" departSpeed="0.00" departDelay="1.00" arrival="200.00" arrivalLane="E2_0" arrivalPos="121.03" arrivalSpeed="7.00" duration="77.00" routeLength="415.93" waitingTime="4.00" waitingCount="1" stopTime="0.00" timeLoss="16.72" rerouteNo="0" devices="tripinfo_carflow2.17 routing_carflow2.17" vType="car" speedFactor="1.00" vaporized=""/>
    <tripinfo id="carflow6.7" depart="74.00" departLane="-E2_0" departPos="5.10" departSpeed="0.00" departDelay="0.00" arrival="201.00" arrivalLane="E1_0" arrivalPos="300.00" arrivalSpeed="7.00" duration="127.00" routeLength="594.90" waitingTime="33.00" waitingCount="1" stopTime="0.00" timeLoss="41.12" rerouteNo="0" devices="tripinfo_carflow6.7 routing_carflow6.7" vType="car" speedFactor="1.17" vaporized=""/>
    <tripinfo id="carflow2.18" depart="125.00" departLane="-E1_0" departPos="5.10" departSpeed="0.00" departDelay="2.00" arrival="202.00" arrivalLane="E2_0" arrivalPos="121.03" arrivalSpeed="7.00" duration="77.00" routeLength="415.93" waitingTime="4.00" waitingCount="1" stopTime="0.00" timeLoss="17.19" rerouteNo="0" devices="tripinfo_carflow2.18 routing_carflow2.18" vType="car" speedFactor="1.14" vaporized=""/>
    <tripinfo id="carflow6.8" depart="76.00" departLane="-E2_0" departPos="5.10" departSpeed="0.00" departDelay="1.00" arrival="203.00" arrivalLane="E1_0" arrivalPos="300.00" arrivalSpeed="7.00" duration="127.00" routeLength="594.90" waitingTime="31.00" waitingCount="1" stopTime="0.00" timeLoss="41.19" rerouteNo="0" devices="tripinfo_carflow6.8 routing_carflow6.8" vType="car" speedFactor="1.02" vaporized=""/>
    <tripinfo id="carflow6.9" depart="91.00" departLane="-E2_0" departPos="5.10" departSpeed="0.00" departDelay="0.00" arrival="205.00" arrivalLane="E1_0" arrivalPos="300.00" arrivalSpeed="7.00" duration="114.00" routeLength="594.90" waitingTime="20.00" waitingCount="1" stopTime="0.00" timeLoss="28.26" rerouteNo="0" devices="tripinfo_carflow6.9 routing_carflow6.9" vType="car" speedFactor="1.10" vaporized=""/>
    <tripinfo id="carflow6.10" depart="115.00" departLane="-E2_0" departPos="5.10" departSpeed="0.00" departDelay="0.00" arrival="207.00" arrivalLane="E1_0" arrivalPos="300.00" arrivalSpeed="7.00" duration="92.00" routeLength="594.90" waitingTime="0.00" waitingCount="0" stopTime="0.00" timeLoss="6.33" rerouteNo="0" devices="tripinfo_carflow6.10 routing_carflow6.10" vType="car" speedFactor="1.17" vaporized=""/>
    <tripinfo id="carflow6.11" depart="120.00" departLane="-E2_0" departPos="5.10" departSpeed="0.00" departDelay="0.00" arrival="210.00" arrivalLane="E1_0" arrivalPos="300.00" arrivalSpeed="7.00" duration="90.00" routeLength="594.90" waitingTime="0.00" waitingCount="0" stopTime="0.00" timeLoss="4.39" rerouteNo="0" devices="tripinfo_carflow6.11 routing_carflow6.11" vType="car" speedFactor="1.10" vaporized=""/>
    <tripinfo id="carflow6.12" depart="148.00" departLane="-E2_0" departPos="5.10" departSpeed="0.00" departDelay="0.00" arrival="236.00" arrivalLane="E1_0" arrivalPos="300.00" arrivalSpeed="6.91" duration="88.00" routeLength="594.90" waitingTime="0.00" waitingCount="0" stopTime="0.00" timeLoss="1.85" rerouteNo="0" devices="tripinfo_carflow6.12 routing_carflow6.12" vType="car" speedFactor="0.99" vaporized=""/>
    <tripinfo id="carflow4.8" depart="116.00" departLane="-E3_0" departPos="5.10" departSpeed="0.00" departDelay="0.00" arrival="239.00" arrivalLane="-E0_0" arrivalPos="300.00" arrivalSpeed="7.00" duration="123.00" routeLength="594.90" waitingTime="0.00" waitingCount="0" stopTime="32.00" timeLoss="5.89" rerouteNo="0" devices="tripinfo_carflow4.8 routing_carflow4.8" vType="car" speedFactor="1.02" vaporized=""/>
    <tripinfo id="evflow0.1" depart="104.00" departLane="E0_0" departPos="5.10" departSpeed="0.00" departDelay="0.00" arrival="244.00" arrivalLane="E3_0" arrivalPos="300.00" arrivalSpeed="6.30" duration="140.00" routeLength="594.90" waitingTime="0.00" waitingCount="0" stopTime="37.00" timeLoss="8.23" rerouteNo="0" devices="tripinfo_evflow0.1 routing_evflow0.1" vType="ev" speedFactor="0.90" vaporized=""/>
    <tripinfo id="carflow4.9" depart="122.00" departLane="-E3_0" departPos="5.10" departSpeed="0.00" departDelay="0.00" arrival="247.00" arrivalLane="-E0_0" arrivalPos="300.00" arrivalSpeed="6.29" duration="125.00" routeLength="594.90" waitingTime="23.00" waitingCount="1" stopTime="0.00" timeLoss="29.56" rerouteNo="0" devices="tripinfo_carflow4.9 routing_carflow4.9" vType="car" speedFactor="0.90" vaporized=""/>
    <tripinfo id="carflow0.11" depart="113.00" departLane="E0_0" departPos="5.10" departSpeed="0.00" departDelay="0.00" arrival="249.00" arrivalLane="E3_0" arrivalPos="300.00" arrivalSpeed="5.95" duration="136.00" routeLength="594.90" waitingTime="30.00" waitingCount="1" stopTime="0.00" timeLoss="35.92" rerouteNo="0" devices="tripinfo_carflow0.11 routing_carflow0.11" vType="car" speedFactor="0.85" vaporized=""/>
    <tripinfo id="carflow4.10" depart="134.00" departLane="-E3_0" departPos="5.10" departSpeed="0.00" departDelay="0.00" arrival="249.00" arrivalLane="-E0_0" arrivalPos="300.00" arrivalSpeed="7.00" duration="115.00" routeLength="594.90" waitingTime="19.00" waitingCount="1" stopTime="0.00" timeLoss="29.18" rerouteNo="0" devices="tripinfo_carflow4.10 routing_carflow4.10" vType="car" speedFactor="1.02" vaporized=""/>
    <tripinfo id="carflow0.12" depart="130.00" departLane="E0_0" departPos="5.10" departSpeed="0.00" departDelay="0.00" arrival="251.00" arrivalLane="E3_0" arrivalPos="300.00" arrivalSpeed="6.79" duration="121.00" routeLength="594.90" waitingTime="21.00" waitingCount="1" stopTime="0.00" timeLoss="33.20" rerouteNo="0" devices="tripinfo_carflow0.12 routing_carflow0.12" vType="car" speedFactor="0.97" vaporized=""/>
    <tripinfo id="carflow4.11" depart="149.00" departLane="-E3_0" departPos="5.10" departSpeed="0.00" departDelay="0.00" arrival="251.00" arrivalLane="-E0_0" arrivalPos="300.00" arrivalSpeed="6.56" duration="102.00" routeLength="594.90" waitingTime="3.00" waitingCount="1" stopTime="0.00" timeLoss="10.74" rerouteNo="0" devices="tripinfo_carflow4.11 routing_carflow4.11" vType="car" speedFactor="0.94" vaporized=""/>
    <tripinfo id="carflow0.13" depart="134.00" departLane="E0_0" departPos="5.10" departSpeed="0.00" departDelay="0.00" arrival="253.00" arrivalLane="E3_0" arrivalPos="300.00" arrivalSpeed="7.00" duration="119.00" routeLength="594.90" waitingTime="20.00" waitingCount="1" stopTime="0.00" timeLoss="33.92" rerouteNo="0" devices="tripinfo_carflow0.13 routing_carflow0.13" vType="car" speedFactor="1.12" vaporized=""/>
    <tripinfo id="carflow4.12" depart="163.00" departLane="-E3_0" departPos="5.10" departSpeed="0.00" departDelay="0.00" arrival="253.00" arrivalLane="-E0_0" arrivalPos="300.00" arrivalSpeed="7.00" duration="90.00" routeLength="594.90" waitingTime="0.00" waitingCount="0" stopTime="0.00" timeLoss="4.89" rerouteNo="0" devices="tripinfo_carflow4.12 routing_carflow4.12" vType="car" speedFactor="1.02" vaporized=""/>
    <tripinfo id="carflow0.14" depart="157.00" departLane="E0_0" departPos="5.10" departSpeed="0.00" departDelay="0.00" arrival="256.00" arrivalLane="E3_0" arrivalPos="300.00" arrivalSpeed="6.40" duration="99.00" routeLength="594.90" waitingTime="0.00" waitingCount="0" stopTime="0.00" timeLoss="5.39" rerouteNo="0" devices="tripinfo_carflow0.14 routing_carflow0.14" vType="car" speedFactor="0.91" vaporized=""/>
    <tripinfo id="carflow0.15" depart="159.00" departLane="E0_0" departPos="5.10" departSpeed="0.00" departDelay="1.00" arrival="258.00" arrivalLane="E3_0" arrivalPos="300.00" arrivalSpeed="7.00" duration="99.00" routeLength="594.90" waitingTime="1.00" waitingCount="1" stopTime="0.00" timeLoss="13.37" rerouteNo="0" devices="tripinfo_carflow0.15 routing_carflow0.15" vType="car" speedFactor="1.04" vaporized=""/>
    <tripinfo id="carflow4.13" depart="165.00" departLane="-E3_0" departPos="5.10" departSpeed="0.00" departDelay="0.00" arrival="258.00" arrivalLane="-E0_0" arrivalPos="300.00" arrivalSpeed="6.81" duration="93.00" routeLength="594.90" waitingTime="0.00" waitingCount="0" stopTime="0.00" timeLoss="4.71" rerouteNo="0" devices="tripinfo_carflow4.13 routing_carflow4.13" vType="car" speedFactor="0.97" vaporized=""/>
    <tripinfo id="carflow0.16" depart="161.00" departLane="E0_0" departPos="5.10" departSpeed="0.00" departDelay="2.00" arrival="260.00" arrivalLane="E3_0" arrivalPos="300.00" arrivalSpeed="7.00" duration="99.00" routeLength="594.90" waitingTime="0.00" waitingCount="0" stopTime="0.00" timeLoss="13.44" rerouteNo="0" devices="tripinfo_carflow0.16 routing_carflow0.16" vType="car" speedFactor="1.02" vaporized=""/>
    <tripinfo id="evflow0.2" depart="165.00" departLane="E0_0" departPos="5.10" departSpeed="0.00" departDelay="0.00" arrival="262.00" arrivalLane="E3_0" arrivalPos="300.00" arrivalSpeed="7.00" duration="97.00" routeLength="594.90" waitingTime="0.00" waitingCount="0" stopTime="0.00" timeLoss="11.51" rerouteNo="0" devices="tripinfo_evflow0.2 routing_evflow0.2" vType="ev" speedFactor="1.06" vaporized=""/>
    <tripinfo id="carflow2.19" depart="129.00" departLane="-E1_0" departPos="5.10" departSpeed="0.00" departDelay="0.00" arrival="264.00" arrivalLane="E2_0" arrivalPos="121.03" arrivalSpeed="7.00" duration="135.00" routeLength="415.93" waitingTime="4.00" waitingCount="1" stopTime="59.00" timeLoss="15.89" rerouteNo="0" devices="tripinfo_carflow2.19 routing_carflow2.19" vType="car" speedFactor="1.02" vaporized=""/>
    <tripinfo id="evflow2.1" depart="133.00" departLane="-E1_0" departPos="5.10" departSpeed="0.00" departDelay="0.00" arrival="266.00" arrivalLane="E2_0" arrivalPos="121.03" arrivalSpeed="7.00" duration="133.00" routeLength="415.93" waitingTime="61.00" waitingCount="2" stopTime="0.00" timeLoss="73.06" rerouteNo="0" devices="tripinfo_evflow2.1 routing_evflow2.1" vType="ev" speedFactor="1.08" vaporized=""/>